<?xml version="1.0" encoding="UTF-8"?>

<!-- generated on 2023-12-28 19:19:33 by Eclipse SUMO GUI Version 1.19.0
<configuration xmlns:xsi="http://www.w3.org/2001/XMLSchema-instance" xsi:noNamespaceSchemaLocation="http://sumo.dlr.de/xsd/sumoConfiguration.xsd">

    <input>
        <net-file value="clean corrected inputs/offset_signal_Seattle_network_reformed connections2.net.xml"/>
        <route-files value="adjusted_reduced_od2trips_new_psrc_vehicle_trips_converted_taz.rou.xml, clean corrected inputs/new_bus_link_route.rou.xml, new_ped_od_input.rou.xml"/>
        <additional-files value="clean corrected inputs/modified_new_Taz_with_pseudo.add.xml,edge_data.add.xml,edge_data_min.add.xml,clean corrected inputs/new_signal_additional.add.xml"/>
    </input>

    <output>
        <tripinfo-output value="new output/tripinfo_output.xml"/>
        <vehroute-output value="new output/vehroute_output.xml"/>
    </output>

    <time>
        <begin value="18000"/>
        <end value="72000"/>
        <step-length value="0.1"/>
    </time>

    <processing>
        <extrapolate-departpos value="true"/>
        <threads value="4"/>
        <ignore-junction-blocker value="60"/>
        <ignore-route-errors value="true"/>
        <ignore-accidents value="true"/>
        <collision.action value="remove"/>
        <time-to-teleport value="150"/>
        <sloppy-insert value="true"/>
        <lanechange.overtake-right value="true"/>
    </processing>

    <routing>
        <routing-algorithm value="astar"/>
        <weights.priority-factor value="10"/>
        <device.rerouting.probability value="0.8"/>
        <device.rerouting.period value="200"/>
        <device.rerouting.with-taz value="true"/>
        <device.rerouting.threads value="4"/>
    </routing>

    <report>
        <log value="new output/log.xml"/>
    </report>

    <traci_server>
        <remote-port value="57202"/>
    </traci_server>

</configuration>
-->

<detector xmlns:xsi="http://www.w3.org/2001/XMLSchema-instance" xsi:noNamespaceSchemaLocation="http://sumo.dlr.de/xsd/det_e1_file.xsd">
    <interval begin="18000.00" end="18300.00" id="1089668757_0_D0.0" nVehContrib="0" flow="0.00" occupancy="0.00" speed="-1.00" harmonicMeanSpeed="-1.00" length="-1.00" nVehEntered="0"/>
    <interval begin="18000.00" end="18300.00" id="1089668757_0_D0.1" nVehContrib="0" flow="0.00" occupancy="0.00" speed="-1.00" harmonicMeanSpeed="-1.00" length="-1.00" nVehEntered="0"/>
    <interval begin="18000.00" end="18300.00" id="1089668757_0_D1.0" nVehContrib="4" flow="48.00" occupancy="5.71" speed="4.84" harmonicMeanSpeed="1.01" length="6.00" nVehEntered="4"/>
    <interval begin="18000.00" end="18300.00" id="1089668757_0_D1.1" nVehContrib="0" flow="0.00" occupancy="0.00" speed="-1.00" harmonicMeanSpeed="-1.00" length="-1.00" nVehEntered="0"/>
    <interval begin="18000.00" end="18300.00" id="1089668757_0_D2.0" nVehContrib="0" flow="0.00" occupancy="0.00" speed="-1.00" harmonicMeanSpeed="-1.00" length="-1.00" nVehEntered="0"/>
    <interval begin="18000.00" end="18300.00" id="1089668757_0_D2.1" nVehContrib="0" flow="0.00" occupancy="0.00" speed="-1.00" harmonicMeanSpeed="-1.00" length="-1.00" nVehEntered="0"/>
    <interval begin="18000.00" end="18300.00" id="1089668757_0_D3.0" nVehContrib="0" flow="0.00" occupancy="0.00" speed="-1.00" harmonicMeanSpeed="-1.00" length="-1.00" nVehEntered="0"/>
    <interval begin="18000.00" end="18300.00" id="1089668757_0_D3.1" nVehContrib="2" flow="24.00" occupancy="0.23" speed="11.71" harmonicMeanSpeed="11.71" length="4.00" nVehEntered="2"/>
    <interval begin="18000.00" end="18300.00" id="1487927529_0_D0.0" nVehContrib="2" flow="24.00" occupancy="0.26" speed="10.68" harmonicMeanSpeed="10.23" length="4.00" nVehEntered="2"/>
    <interval begin="18000.00" end="18300.00" id="1487927529_0_D0.1" nVehContrib="0" flow="0.00" occupancy="0.00" speed="-1.00" harmonicMeanSpeed="-1.00" length="-1.00" nVehEntered="0"/>
    <interval begin="18000.00" end="18300.00" id="1487927529_0_D1.0" nVehContrib="1" flow="12.00" occupancy="0.10" speed="12.87" harmonicMeanSpeed="12.87" length="4.00" nVehEntered="1"/>
    <interval begin="18000.00" end="18300.00" id="1487927529_0_D1.1" nVehContrib="0" flow="0.00" occupancy="0.00" speed="-1.00" harmonicMeanSpeed="-1.00" length="-1.00" nVehEntered="0"/>
    <interval begin="18000.00" end="18300.00" id="2906119381_0_D0.0" nVehContrib="0" flow="0.00" occupancy="0.00" speed="-1.00" harmonicMeanSpeed="-1.00" length="-1.00" nVehEntered="0"/>
    <interval begin="18000.00" end="18300.00" id="2906119381_0_D0.1" nVehContrib="0" flow="0.00" occupancy="0.00" speed="-1.00" harmonicMeanSpeed="-1.00" length="-1.00" nVehEntered="0"/>
    <interval begin="18000.00" end="18300.00" id="2906119381_0_D1.0" nVehContrib="1" flow="12.00" occupancy="0.11" speed="11.65" harmonicMeanSpeed="11.65" length="4.00" nVehEntered="1"/>
    <interval begin="18000.00" end="18300.00" id="2906119381_0_D2.0" nVehContrib="2" flow="24.00" occupancy="0.23" speed="11.41" harmonicMeanSpeed="11.40" length="4.00" nVehEntered="2"/>
    <interval begin="18000.00" end="18300.00" id="2906119381_0_D2.1" nVehContrib="0" flow="0.00" occupancy="0.00" speed="-1.00" harmonicMeanSpeed="-1.00" length="-1.00" nVehEntered="0"/>
    <interval begin="18000.00" end="18300.00" id="30003796_0_D0.0" nVehContrib="0" flow="0.00" occupancy="0.00" speed="-1.00" harmonicMeanSpeed="-1.00" length="-1.00" nVehEntered="0"/>
    <interval begin="18000.00" end="18300.00" id="30003796_0_D1.0" nVehContrib="0" flow="0.00" occupancy="0.00" speed="-1.00" harmonicMeanSpeed="-1.00" length="-1.00" nVehEntered="0"/>
    <interval begin="18000.00" end="18300.00" id="30003796_0_D1.1" nVehContrib="0" flow="0.00" occupancy="0.00" speed="-1.00" harmonicMeanSpeed="-1.00" length="-1.00" nVehEntered="0"/>
    <interval begin="18000.00" end="18300.00" id="30003796_0_D1.2" nVehContrib="1" flow="12.00" occupancy="0.11" speed="11.65" harmonicMeanSpeed="11.65" length="4.00" nVehEntered="1"/>
    <interval begin="18000.00" end="18300.00" id="30003796_0_D1.3" nVehContrib="0" flow="0.00" occupancy="0.00" speed="-1.00" harmonicMeanSpeed="-1.00" length="-1.00" nVehEntered="0"/>
    <interval begin="18000.00" end="18300.00" id="30079057_0_D0.0" nVehContrib="0" flow="0.00" occupancy="0.00" speed="-1.00" harmonicMeanSpeed="-1.00" length="-1.00" nVehEntered="0"/>
    <interval begin="18000.00" end="18300.00" id="30079057_0_D0.1" nVehContrib="0" flow="0.00" occupancy="0.00" speed="-1.00" harmonicMeanSpeed="-1.00" length="-1.00" nVehEntered="0"/>
    <interval begin="18000.00" end="18300.00" id="30079057_0_D1.0" nVehContrib="11" flow="132.00" occupancy="1.14" speed="14.21" harmonicMeanSpeed="12.90" length="4.00" nVehEntered="11"/>
    <interval begin="18000.00" end="18300.00" id="30079057_0_D1.1" nVehContrib="4" flow="48.00" occupancy="0.34" speed="17.85" harmonicMeanSpeed="15.85" length="4.00" nVehEntered="4"/>
    <interval begin="18000.00" end="18300.00" id="30079057_0_D2.0" nVehContrib="1" flow="12.00" occupancy="0.11" speed="11.65" harmonicMeanSpeed="11.65" length="4.00" nVehEntered="1"/>
    <interval begin="18000.00" end="18300.00" id="30079057_0_D2.1" nVehContrib="0" flow="0.00" occupancy="0.00" speed="-1.00" harmonicMeanSpeed="-1.00" length="-1.00" nVehEntered="0"/>
    <interval begin="18000.00" end="18300.00" id="30079057_0_D3.0" nVehContrib="0" flow="0.00" occupancy="0.00" speed="-1.00" harmonicMeanSpeed="-1.00" length="-1.00" nVehEntered="0"/>
    <interval begin="18000.00" end="18300.00" id="30079057_0_D3.1" nVehContrib="2" flow="24.00" occupancy="0.23" speed="11.65" harmonicMeanSpeed="11.65" length="4.00" nVehEntered="2"/>
    <interval begin="18000.00" end="18300.00" id="53119474_0_D0.0" nVehContrib="1" flow="12.00" occupancy="0.11" speed="12.47" harmonicMeanSpeed="12.47" length="4.00" nVehEntered="1"/>
    <interval begin="18000.00" end="18300.00" id="53119474_0_D1.0" nVehContrib="0" flow="0.00" occupancy="0.00" speed="-1.00" harmonicMeanSpeed="-1.00" length="-1.00" nVehEntered="0"/>
    <interval begin="18000.00" end="18300.00" id="53119474_0_D2.0" nVehContrib="2" flow="24.00" occupancy="0.23" speed="11.36" harmonicMeanSpeed="11.36" length="4.00" nVehEntered="2"/>
    <interval begin="18000.00" end="18300.00" id="53119474_0_D3.0" nVehContrib="4" flow="48.00" occupancy="0.50" speed="10.91" harmonicMeanSpeed="10.64" length="4.00" nVehEntered="4"/>
    <interval begin="18000.00" end="18300.00" id="53119474_0_D3.1" nVehContrib="2" flow="24.00" occupancy="0.21" speed="12.70" harmonicMeanSpeed="12.69" length="4.00" nVehEntered="2"/>
    <interval begin="18000.00" end="18300.00" id="53128668_0_D0.0" nVehContrib="0" flow="0.00" occupancy="0.00" speed="-1.00" harmonicMeanSpeed="-1.00" length="-1.00" nVehEntered="0"/>
    <interval begin="18000.00" end="18300.00" id="53128668_0_D0.1" nVehContrib="2" flow="24.00" occupancy="0.22" speed="12.28" harmonicMeanSpeed="12.24" length="4.00" nVehEntered="2"/>
    <interval begin="18000.00" end="18300.00" id="53128668_0_D0.2" nVehContrib="0" flow="0.00" occupancy="0.00" speed="-1.00" harmonicMeanSpeed="-1.00" length="-1.00" nVehEntered="0"/>
    <interval begin="18000.00" end="18300.00" id="53128668_0_D1.0" nVehContrib="0" flow="0.00" occupancy="0.00" speed="-1.00" harmonicMeanSpeed="-1.00" length="-1.00" nVehEntered="0"/>
    <interval begin="18000.00" end="18300.00" id="53128668_0_D1.1" nVehContrib="2" flow="24.00" occupancy="0.21" speed="12.75" harmonicMeanSpeed="12.66" length="4.00" nVehEntered="2"/>
    <interval begin="18000.00" end="18300.00" id="53128668_0_D1.2" nVehContrib="0" flow="0.00" occupancy="0.00" speed="-1.00" harmonicMeanSpeed="-1.00" length="-1.00" nVehEntered="0"/>
    <interval begin="18000.00" end="18300.00" id="53128668_0_D2.0" nVehContrib="1" flow="12.00" occupancy="0.11" speed="11.78" harmonicMeanSpeed="11.78" length="4.00" nVehEntered="1"/>
    <interval begin="18000.00" end="18300.00" id="53128668_0_D2.1" nVehContrib="0" flow="0.00" occupancy="0.00" speed="-1.00" harmonicMeanSpeed="-1.00" length="-1.00" nVehEntered="0"/>
    <interval begin="18000.00" end="18300.00" id="53128668_0_D2.2" nVehContrib="1" flow="12.00" occupancy="0.11" speed="11.65" harmonicMeanSpeed="11.65" length="4.00" nVehEntered="1"/>
    <interval begin="18000.00" end="18300.00" id="53189262_0_D0.0" nVehContrib="1" flow="12.00" occupancy="0.11" speed="11.66" harmonicMeanSpeed="11.66" length="4.00" nVehEntered="1"/>
    <interval begin="18000.00" end="18300.00" id="53189262_0_D0.1" nVehContrib="0" flow="0.00" occupancy="0.00" speed="-1.00" harmonicMeanSpeed="-1.00" length="-1.00" nVehEntered="0"/>
    <interval begin="18000.00" end="18300.00" id="53189262_0_D0.2" nVehContrib="0" flow="0.00" occupancy="0.00" speed="-1.00" harmonicMeanSpeed="-1.00" length="-1.00" nVehEntered="0"/>
    <interval begin="18000.00" end="18300.00" id="53189262_0_D1.0" nVehContrib="0" flow="0.00" occupancy="0.00" speed="-1.00" harmonicMeanSpeed="-1.00" length="-1.00" nVehEntered="0"/>
    <interval begin="18000.00" end="18300.00" id="53189262_0_D1.1" nVehContrib="0" flow="0.00" occupancy="0.00" speed="-1.00" harmonicMeanSpeed="-1.00" length="-1.00" nVehEntered="0"/>
    <interval begin="18000.00" end="18300.00" id="53189262_0_D2.0" nVehContrib="0" flow="0.00" occupancy="0.00" speed="-1.00" harmonicMeanSpeed="-1.00" length="-1.00" nVehEntered="0"/>
    <interval begin="18000.00" end="18300.00" id="53189262_0_D2.1" nVehContrib="0" flow="0.00" occupancy="0.00" speed="-1.00" harmonicMeanSpeed="-1.00" length="-1.00" nVehEntered="0"/>
    <interval begin="18000.00" end="18300.00" id="53189262_0_D2.2" nVehContrib="1" flow="12.00" occupancy="0.11" speed="11.65" harmonicMeanSpeed="11.65" length="4.00" nVehEntered="1"/>
    <interval begin="18000.00" end="18300.00" id="53189262_0_D3.0" nVehContrib="1" flow="12.00" occupancy="0.09" speed="14.50" harmonicMeanSpeed="14.50" length="4.00" nVehEntered="1"/>
    <interval begin="18000.00" end="18300.00" id="53189262_0_D3.1" nVehContrib="0" flow="0.00" occupancy="0.00" speed="-1.00" harmonicMeanSpeed="-1.00" length="-1.00" nVehEntered="0"/>
    <interval begin="18000.00" end="18300.00" id="53189262_0_D3.2" nVehContrib="1" flow="12.00" occupancy="0.11" speed="11.67" harmonicMeanSpeed="11.67" length="4.00" nVehEntered="1"/>
    <interval begin="18000.00" end="18300.00" id="53189264_0_D0.0" nVehContrib="0" flow="0.00" occupancy="0.00" speed="-1.00" harmonicMeanSpeed="-1.00" length="-1.00" nVehEntered="0"/>
    <interval begin="18000.00" end="18300.00" id="53189264_0_D1.0" nVehContrib="0" flow="0.00" occupancy="0.00" speed="-1.00" harmonicMeanSpeed="-1.00" length="-1.00" nVehEntered="0"/>
    <interval begin="18000.00" end="18300.00" id="53189264_0_D2.0" nVehContrib="0" flow="0.00" occupancy="0.00" speed="-1.00" harmonicMeanSpeed="-1.00" length="-1.00" nVehEntered="0"/>
    <interval begin="18000.00" end="18300.00" id="53200538_0_D0.0" nVehContrib="0" flow="0.00" occupancy="0.00" speed="-1.00" harmonicMeanSpeed="-1.00" length="-1.00" nVehEntered="0"/>
    <interval begin="18000.00" end="18300.00" id="53200538_0_D0.1" nVehContrib="0" flow="0.00" occupancy="0.00" speed="-1.00" harmonicMeanSpeed="-1.00" length="-1.00" nVehEntered="0"/>
    <interval begin="18000.00" end="18300.00" id="53200538_0_D1.0" nVehContrib="0" flow="0.00" occupancy="0.00" speed="-1.00" harmonicMeanSpeed="-1.00" length="-1.00" nVehEntered="0"/>
    <interval begin="18000.00" end="18300.00" id="53200538_0_D1.1" nVehContrib="0" flow="0.00" occupancy="0.00" speed="-1.00" harmonicMeanSpeed="-1.00" length="-1.00" nVehEntered="0"/>
    <interval begin="18000.00" end="18300.00" id="53200538_0_D2.0" nVehContrib="2" flow="24.00" occupancy="0.23" speed="11.62" harmonicMeanSpeed="11.62" length="4.00" nVehEntered="2"/>
    <interval begin="18000.00" end="18300.00" id="53200538_0_D2.1" nVehContrib="0" flow="0.00" occupancy="0.00" speed="-1.00" harmonicMeanSpeed="-1.00" length="-1.00" nVehEntered="0"/>
    <interval begin="18000.00" end="18300.00" id="53200538_0_D3.0" nVehContrib="1" flow="12.00" occupancy="0.12" speed="11.54" harmonicMeanSpeed="11.54" length="4.00" nVehEntered="1"/>
    <interval begin="18000.00" end="18300.00" id="53200538_0_D3.1" nVehContrib="0" flow="0.00" occupancy="0.00" speed="-1.00" harmonicMeanSpeed="-1.00" length="-1.00" nVehEntered="0"/>
    <interval begin="18000.00" end="18300.00" id="gneJ108_0_D0.0" nVehContrib="5" flow="60.00" occupancy="0.48" speed="14.03" harmonicMeanSpeed="13.93" length="4.00" nVehEntered="5"/>
    <interval begin="18000.00" end="18300.00" id="gneJ108_0_D0.1" nVehContrib="8" flow="96.00" occupancy="0.93" speed="11.80" harmonicMeanSpeed="11.42" length="4.00" nVehEntered="8"/>
    <interval begin="18000.00" end="18300.00" id="gneJ108_0_D1.0" nVehContrib="0" flow="0.00" occupancy="0.00" speed="-1.00" harmonicMeanSpeed="-1.00" length="-1.00" nVehEntered="0"/>
    <interval begin="18000.00" end="18300.00" id="gneJ108_0_D1.1" nVehContrib="0" flow="0.00" occupancy="0.00" speed="-1.00" harmonicMeanSpeed="-1.00" length="-1.00" nVehEntered="0"/>
    <interval begin="18000.00" end="18300.00" id="gneJ108_0_D2.0" nVehContrib="0" flow="0.00" occupancy="0.00" speed="-1.00" harmonicMeanSpeed="-1.00" length="-1.00" nVehEntered="0"/>
    <interval begin="18000.00" end="18300.00" id="gneJ108_0_D2.1" nVehContrib="0" flow="0.00" occupancy="0.00" speed="-1.00" harmonicMeanSpeed="-1.00" length="-1.00" nVehEntered="0"/>
    <interval begin="18000.00" end="18300.00" id="gneJ108_0_D2.2" nVehContrib="0" flow="0.00" occupancy="0.00" speed="-1.00" harmonicMeanSpeed="-1.00" length="-1.00" nVehEntered="0"/>
    <interval begin="18000.00" end="18300.00" id="gneJ108_0_D3.0" nVehContrib="0" flow="0.00" occupancy="0.00" speed="-1.00" harmonicMeanSpeed="-1.00" length="-1.00" nVehEntered="0"/>
    <interval begin="18000.00" end="18300.00" id="gneJ108_0_D3.1" nVehContrib="2" flow="24.00" occupancy="0.26" speed="10.82" harmonicMeanSpeed="10.44" length="4.00" nVehEntered="2"/>
    <interval begin="18000.00" end="18300.00" id="gneJ355_0_D0.0" nVehContrib="0" flow="0.00" occupancy="0.00" speed="-1.00" harmonicMeanSpeed="-1.00" length="-1.00" nVehEntered="0"/>
    <interval begin="18000.00" end="18300.00" id="gneJ355_0_D0.1" nVehContrib="0" flow="0.00" occupancy="0.00" speed="-1.00" harmonicMeanSpeed="-1.00" length="-1.00" nVehEntered="0"/>
    <interval begin="18000.00" end="18300.00" id="gneJ355_0_D0.2" nVehContrib="0" flow="0.00" occupancy="0.00" speed="-1.00" harmonicMeanSpeed="-1.00" length="-1.00" nVehEntered="0"/>
    <interval begin="18000.00" end="18300.00" id="gneJ355_0_D1.0" nVehContrib="0" flow="0.00" occupancy="0.00" speed="-1.00" harmonicMeanSpeed="-1.00" length="-1.00" nVehEntered="0"/>
    <interval begin="18000.00" end="18300.00" id="gneJ355_0_D1.1" nVehContrib="0" flow="0.00" occupancy="0.00" speed="-1.00" harmonicMeanSpeed="-1.00" length="-1.00" nVehEntered="0"/>
    <interval begin="18000.00" end="18300.00" id="gneJ355_0_D2.0" nVehContrib="7" flow="84.00" occupancy="0.88" speed="10.95" harmonicMeanSpeed="10.62" length="4.00" nVehEntered="7"/>
    <interval begin="18000.00" end="18300.00" id="gneJ355_0_D2.1" nVehContrib="1" flow="12.00" occupancy="0.11" speed="11.61" harmonicMeanSpeed="11.61" length="4.00" nVehEntered="1"/>
    <interval begin="18000.00" end="18300.00" id="gneJ355_2_D0.0" nVehContrib="0" flow="0.00" occupancy="0.00" speed="-1.00" harmonicMeanSpeed="-1.00" length="-1.00" nVehEntered="0"/>
    <interval begin="18000.00" end="18300.00" id="gneJ355_2_D0.1" nVehContrib="0" flow="0.00" occupancy="0.00" speed="-1.00" harmonicMeanSpeed="-1.00" length="-1.00" nVehEntered="0"/>
    <interval begin="18000.00" end="18300.00" id="gneJ355_2_D0.2" nVehContrib="0" flow="0.00" occupancy="0.00" speed="-1.00" harmonicMeanSpeed="-1.00" length="-1.00" nVehEntered="0"/>
    <interval begin="18000.00" end="18300.00" id="gneJ355_2_D1.0" nVehContrib="0" flow="0.00" occupancy="0.00" speed="-1.00" harmonicMeanSpeed="-1.00" length="-1.00" nVehEntered="0"/>
    <interval begin="18000.00" end="18300.00" id="gneJ355_2_D1.1" nVehContrib="0" flow="0.00" occupancy="0.00" speed="-1.00" harmonicMeanSpeed="-1.00" length="-1.00" nVehEntered="0"/>
    <interval begin="18000.00" end="18300.00" id="gneJ355_2_D2.0" nVehContrib="7" flow="84.00" occupancy="0.88" speed="10.95" harmonicMeanSpeed="10.62" length="4.00" nVehEntered="7"/>
    <interval begin="18000.00" end="18300.00" id="gneJ355_2_D2.1" nVehContrib="1" flow="12.00" occupancy="0.11" speed="11.61" harmonicMeanSpeed="11.61" length="4.00" nVehEntered="1"/>
    <interval begin="18000.00" end="18300.00" id="4163983439_2_D0.0" nVehContrib="0" flow="0.00" occupancy="0.00" speed="-1.00" harmonicMeanSpeed="-1.00" length="-1.00" nVehEntered="0"/>
    <interval begin="18000.00" end="18300.00" id="4163983439_2_D1.0" nVehContrib="0" flow="0.00" occupancy="0.00" speed="-1.00" harmonicMeanSpeed="-1.00" length="-1.00" nVehEntered="0"/>
    <interval begin="18000.00" end="18300.00" id="4163983439_2_D2.0" nVehContrib="3" flow="36.00" occupancy="0.36" speed="11.41" harmonicMeanSpeed="10.99" length="4.00" nVehEntered="3"/>
    <interval begin="18000.00" end="18300.00" id="4163983439_2_D2.1" nVehContrib="0" flow="0.00" occupancy="0.00" speed="-1.00" harmonicMeanSpeed="-1.00" length="-1.00" nVehEntered="0"/>
    <interval begin="18000.00" end="18300.00" id="53189617_2_D0.0" nVehContrib="0" flow="0.00" occupancy="0.00" speed="-1.00" harmonicMeanSpeed="-1.00" length="-1.00" nVehEntered="0"/>
    <interval begin="18000.00" end="18300.00" id="53189617_2_D0.1" nVehContrib="0" flow="0.00" occupancy="0.00" speed="-1.00" harmonicMeanSpeed="-1.00" length="-1.00" nVehEntered="0"/>
    <interval begin="18000.00" end="18300.00" id="53189617_2_D1.0" nVehContrib="0" flow="0.00" occupancy="0.00" speed="-1.00" harmonicMeanSpeed="-1.00" length="-1.00" nVehEntered="0"/>
    <interval begin="18000.00" end="18300.00" id="53189617_2_D2.0" nVehContrib="2" flow="24.00" occupancy="0.20" speed="13.50" harmonicMeanSpeed="13.48" length="4.00" nVehEntered="2"/>
    <interval begin="18000.00" end="18300.00" id="53189617_2_D2.1" nVehContrib="1" flow="12.00" occupancy="0.10" speed="12.89" harmonicMeanSpeed="12.89" length="4.00" nVehEntered="1"/>
    <interval begin="18000.00" end="18300.00" id="53146386_2_D0.0" nVehContrib="0" flow="0.00" occupancy="0.00" speed="-1.00" harmonicMeanSpeed="-1.00" length="-1.00" nVehEntered="0"/>
    <interval begin="18000.00" end="18300.00" id="53146386_2_D0.1" nVehContrib="2" flow="24.00" occupancy="0.21" speed="12.53" harmonicMeanSpeed="12.52" length="4.00" nVehEntered="2"/>
    <interval begin="18000.00" end="18300.00" id="53146386_2_D0.2" nVehContrib="0" flow="0.00" occupancy="0.00" speed="-1.00" harmonicMeanSpeed="-1.00" length="-1.00" nVehEntered="0"/>
    <interval begin="18000.00" end="18300.00" id="53146386_2_D1.0" nVehContrib="1" flow="12.00" occupancy="0.11" speed="12.25" harmonicMeanSpeed="12.25" length="4.00" nVehEntered="1"/>
    <interval begin="18000.00" end="18300.00" id="53146386_2_D1.1" nVehContrib="0" flow="0.00" occupancy="0.00" speed="-1.00" harmonicMeanSpeed="-1.00" length="-1.00" nVehEntered="0"/>
    <interval begin="18000.00" end="18300.00" id="53146386_2_D1.2" nVehContrib="0" flow="0.00" occupancy="0.00" speed="-1.00" harmonicMeanSpeed="-1.00" length="-1.00" nVehEntered="0"/>
    <interval begin="18000.00" end="18300.00" id="53146386_2_D2.0" nVehContrib="3" flow="36.00" occupancy="0.31" speed="12.86" harmonicMeanSpeed="12.86" length="4.00" nVehEntered="3"/>
    <interval begin="18000.00" end="18300.00" id="53146386_2_D2.1" nVehContrib="0" flow="0.00" occupancy="0.00" speed="-1.00" harmonicMeanSpeed="-1.00" length="-1.00" nVehEntered="0"/>
    <interval begin="18000.00" end="18300.00" id="53146386_2_D2.2" nVehContrib="0" flow="0.00" occupancy="0.00" speed="-1.00" harmonicMeanSpeed="-1.00" length="-1.00" nVehEntered="0"/>
    <interval begin="18000.00" end="18300.00" id="53155734_2_D0.0" nVehContrib="1" flow="12.00" occupancy="0.34" speed="3.92" harmonicMeanSpeed="3.92" length="4.00" nVehEntered="1"/>
    <interval begin="18000.00" end="18300.00" id="53155734_2_D1.0" nVehContrib="0" flow="0.00" occupancy="0.00" speed="-1.00" harmonicMeanSpeed="-1.00" length="-1.00" nVehEntered="0"/>
    <interval begin="18000.00" end="18300.00" id="53155734_2_D1.1" nVehContrib="0" flow="0.00" occupancy="0.00" speed="-1.00" harmonicMeanSpeed="-1.00" length="-1.00" nVehEntered="0"/>
    <interval begin="18000.00" end="18300.00" id="53155734_2_D2.0" nVehContrib="3" flow="36.00" occupancy="0.30" speed="13.55" harmonicMeanSpeed="13.48" length="4.00" nVehEntered="3"/>
    <interval begin="18000.00" end="18300.00" id="53155734_2_D2.1" nVehContrib="0" flow="0.00" occupancy="0.00" speed="-1.00" harmonicMeanSpeed="-1.00" length="-1.00" nVehEntered="0"/>
    <interval begin="18000.00" end="18300.00" id="53091442_2_D0.0" nVehContrib="0" flow="0.00" occupancy="0.00" speed="-1.00" harmonicMeanSpeed="-1.00" length="-1.00" nVehEntered="0"/>
    <interval begin="18000.00" end="18300.00" id="53091442_2_D1.0" nVehContrib="0" flow="0.00" occupancy="0.00" speed="-1.00" harmonicMeanSpeed="-1.00" length="-1.00" nVehEntered="0"/>
    <interval begin="18000.00" end="18300.00" id="53091442_2_D1.1" nVehContrib="0" flow="0.00" occupancy="0.00" speed="-1.00" harmonicMeanSpeed="-1.00" length="-1.00" nVehEntered="0"/>
    <interval begin="18000.00" end="18300.00" id="53091442_2_D2.0" nVehContrib="3" flow="36.00" occupancy="0.31" speed="12.85" harmonicMeanSpeed="12.85" length="4.00" nVehEntered="3"/>
    <interval begin="18000.00" end="18300.00" id="53091442_2_D2.1" nVehContrib="0" flow="0.00" occupancy="0.00" speed="-1.00" harmonicMeanSpeed="-1.00" length="-1.00" nVehEntered="0"/>
    <interval begin="18000.00" end="18300.00" id="53247506_2_D0.0" nVehContrib="0" flow="0.00" occupancy="0.00" speed="-1.00" harmonicMeanSpeed="-1.00" length="-1.00" nVehEntered="0"/>
    <interval begin="18000.00" end="18300.00" id="53247506_2_D1.0" nVehContrib="0" flow="0.00" occupancy="0.00" speed="-1.00" harmonicMeanSpeed="-1.00" length="-1.00" nVehEntered="0"/>
    <interval begin="18000.00" end="18300.00" id="53247506_2_D1.1" nVehContrib="0" flow="0.00" occupancy="0.00" speed="-1.00" harmonicMeanSpeed="-1.00" length="-1.00" nVehEntered="0"/>
    <interval begin="18000.00" end="18300.00" id="53247506_2_D2.0" nVehContrib="0" flow="0.00" occupancy="0.00" speed="-1.00" harmonicMeanSpeed="-1.00" length="-1.00" nVehEntered="0"/>
    <interval begin="18000.00" end="18300.00" id="53247506_2_D2.1" nVehContrib="0" flow="0.00" occupancy="0.00" speed="-1.00" harmonicMeanSpeed="-1.00" length="-1.00" nVehEntered="0"/>
    <interval begin="18000.00" end="18300.00" id="53247506_2_D3.0" nVehContrib="2" flow="24.00" occupancy="0.19" speed="14.16" harmonicMeanSpeed="14.12" length="4.00" nVehEntered="2"/>
    <interval begin="18000.00" end="18300.00" id="53247506_2_D3.1" nVehContrib="0" flow="0.00" occupancy="0.00" speed="-1.00" harmonicMeanSpeed="-1.00" length="-1.00" nVehEntered="0"/>
    <interval begin="18000.00" end="18300.00" id="gneJ234_2_D0.0" nVehContrib="0" flow="0.00" occupancy="0.00" speed="-1.00" harmonicMeanSpeed="-1.00" length="-1.00" nVehEntered="0"/>
    <interval begin="18000.00" end="18300.00" id="gneJ234_2_D0.1" nVehContrib="0" flow="0.00" occupancy="0.00" speed="-1.00" harmonicMeanSpeed="-1.00" length="-1.00" nVehEntered="0"/>
    <interval begin="18000.00" end="18300.00" id="gneJ234_2_D1.0" nVehContrib="2" flow="24.00" occupancy="0.20" speed="13.47" harmonicMeanSpeed="13.46" length="4.00" nVehEntered="2"/>
    <interval begin="18000.00" end="18300.00" id="gneJ234_2_D1.1" nVehContrib="0" flow="0.00" occupancy="0.00" speed="-1.00" harmonicMeanSpeed="-1.00" length="-1.00" nVehEntered="0"/>
    <interval begin="18000.00" end="18300.00" id="2476726095_2_D0.0" nVehContrib="0" flow="0.00" occupancy="0.00" speed="-1.00" harmonicMeanSpeed="-1.00" length="-1.00" nVehEntered="0"/>
    <interval begin="18000.00" end="18300.00" id="2476726095_2_D0.1" nVehContrib="0" flow="0.00" occupancy="0.00" speed="-1.00" harmonicMeanSpeed="-1.00" length="-1.00" nVehEntered="0"/>
    <interval begin="18000.00" end="18300.00" id="2476726095_2_D1.0" nVehContrib="1" flow="12.00" occupancy="0.10" speed="13.15" harmonicMeanSpeed="13.15" length="4.00" nVehEntered="1"/>
    <interval begin="18000.00" end="18300.00" id="2476726095_2_D1.1" nVehContrib="0" flow="0.00" occupancy="0.00" speed="-1.00" harmonicMeanSpeed="-1.00" length="-1.00" nVehEntered="0"/>
    <interval begin="18000.00" end="18300.00" id="53036746_2_D0.0" nVehContrib="0" flow="0.00" occupancy="0.00" speed="-1.00" harmonicMeanSpeed="-1.00" length="-1.00" nVehEntered="0"/>
    <interval begin="18000.00" end="18300.00" id="53036746_2_D0.1" nVehContrib="0" flow="0.00" occupancy="0.00" speed="-1.00" harmonicMeanSpeed="-1.00" length="-1.00" nVehEntered="0"/>
    <interval begin="18000.00" end="18300.00" id="53036746_2_D1.0" nVehContrib="1" flow="12.00" occupancy="0.10" speed="12.89" harmonicMeanSpeed="12.89" length="4.00" nVehEntered="1"/>
    <interval begin="18000.00" end="18300.00" id="53036746_2_D1.1" nVehContrib="0" flow="0.00" occupancy="0.00" speed="-1.00" harmonicMeanSpeed="-1.00" length="-1.00" nVehEntered="0"/>
    <interval begin="18000.00" end="18300.00" id="6005458284_2_D0.0" nVehContrib="1" flow="12.00" occupancy="0.10" speed="12.90" harmonicMeanSpeed="12.90" length="4.00" nVehEntered="1"/>
    <interval begin="18000.00" end="18300.00" id="6005458284_2_D1.0" nVehContrib="0" flow="0.00" occupancy="0.00" speed="-1.00" harmonicMeanSpeed="-1.00" length="-1.00" nVehEntered="0"/>
    <interval begin="18000.00" end="18300.00" id="53155727_2_D0.0" nVehContrib="0" flow="0.00" occupancy="0.00" speed="-1.00" harmonicMeanSpeed="-1.00" length="-1.00" nVehEntered="0"/>
    <interval begin="18000.00" end="18300.00" id="53155727_2_D1.0" nVehContrib="1" flow="12.00" occupancy="0.06" speed="22.48" harmonicMeanSpeed="22.48" length="4.00" nVehEntered="1"/>
    <interval begin="18000.00" end="18300.00" id="53155727_2_D1.1" nVehContrib="0" flow="0.00" occupancy="0.00" speed="-1.00" harmonicMeanSpeed="-1.00" length="-1.00" nVehEntered="0"/>
    <interval begin="18000.00" end="18300.00" id="53155727_2_D2.0" nVehContrib="0" flow="0.00" occupancy="0.00" speed="-1.00" harmonicMeanSpeed="-1.00" length="-1.00" nVehEntered="0"/>
    <interval begin="18000.00" end="18300.00" id="53155727_2_D3.0" nVehContrib="0" flow="0.00" occupancy="0.00" speed="-1.00" harmonicMeanSpeed="-1.00" length="-1.00" nVehEntered="0"/>
    <interval begin="18000.00" end="18300.00" id="53155727_2_D3.1" nVehContrib="0" flow="0.00" occupancy="0.00" speed="-1.00" harmonicMeanSpeed="-1.00" length="-1.00" nVehEntered="0"/>
    <interval begin="18000.00" end="18300.00" id="53155726_2_D0.0" nVehContrib="0" flow="0.00" occupancy="0.00" speed="-1.00" harmonicMeanSpeed="-1.00" length="-1.00" nVehEntered="0"/>
    <interval begin="18000.00" end="18300.00" id="53155726_2_D1.0" nVehContrib="1" flow="12.00" occupancy="0.10" speed="13.73" harmonicMeanSpeed="13.73" length="4.00" nVehEntered="1"/>
    <interval begin="18000.00" end="18300.00" id="53155726_2_D1.1" nVehContrib="0" flow="0.00" occupancy="0.00" speed="-1.00" harmonicMeanSpeed="-1.00" length="-1.00" nVehEntered="0"/>
    <interval begin="18000.00" end="18300.00" id="53155726_2_D2.0" nVehContrib="0" flow="0.00" occupancy="0.00" speed="-1.00" harmonicMeanSpeed="-1.00" length="-1.00" nVehEntered="0"/>
    <interval begin="18000.00" end="18300.00" id="53155726_2_D3.0" nVehContrib="0" flow="0.00" occupancy="0.00" speed="-1.00" harmonicMeanSpeed="-1.00" length="-1.00" nVehEntered="0"/>
    <interval begin="18000.00" end="18300.00" id="53155726_2_D3.1" nVehContrib="0" flow="0.00" occupancy="0.00" speed="-1.00" harmonicMeanSpeed="-1.00" length="-1.00" nVehEntered="0"/>