<?xml version="1.0" encoding="UTF-8"?>

<!-- generated on 2023-12-12 17:46:57 by Eclipse SUMO GUI Version 1.19.0
<configuration xmlns:xsi="http://www.w3.org/2001/XMLSchema-instance" xsi:noNamespaceSchemaLocation="http://sumo.dlr.de/xsd/sumoConfiguration.xsd">

    <input>
        <net-file value="clean corrected inputs/offset_signal_Seattle_network_reformed connections2.net.xml"/>
        <route-files value="adjusted_reduced_od2trips_new_psrc_vehicle_trips_converted_taz.rou.xml, clean corrected inputs/new_bus_link_route.rou.xml, new_ped_od_input.rou.xml"/>
        <additional-files value="clean corrected inputs/modified_new_Taz_with_pseudo.add.xml,edge_data.add.xml,edge_data_min.add.xml,clean corrected inputs/new_signal_additional.add.xml"/>
    </input>

    <output>
        <tripinfo-output value="new output/tripinfo_output.xml"/>
        <vehroute-output value="new output/vehroute_output.xml"/>
    </output>

    <time>
        <begin value="18000"/>
        <end value="72000"/>
        <step-length value="0.1"/>
    </time>

    <processing>
        <extrapolate-departpos value="true"/>
        <threads value="4"/>
        <ignore-junction-blocker value="60"/>
        <ignore-route-errors value="true"/>
        <ignore-accidents value="true"/>
        <collision.action value="remove"/>
        <time-to-teleport value="150"/>
        <sloppy-insert value="true"/>
        <lanechange.overtake-right value="true"/>
    </processing>

    <routing>
        <routing-algorithm value="astar"/>
        <weights.priority-factor value="10"/>
        <device.rerouting.probability value="0.8"/>
        <device.rerouting.period value="200"/>
        <device.rerouting.with-taz value="true"/>
        <device.rerouting.threads value="4"/>
    </routing>

    <report>
        <log value="new output/log.xml"/>
    </report>

    <traci_server>
        <remote-port value="61925"/>
    </traci_server>

</configuration>
-->

<detector xmlns:xsi="http://www.w3.org/2001/XMLSchema-instance" xsi:noNamespaceSchemaLocation="http://sumo.dlr.de/xsd/det_e1_file.xsd">
    <interval begin="18000.00" end="18300.00" id="1089668757_0_D0.0" nVehContrib="0" flow="0.00" occupancy="0.00" speed="-1.00" harmonicMeanSpeed="-1.00" length="-1.00" nVehEntered="0"/>
    <interval begin="18000.00" end="18300.00" id="1089668757_0_D0.1" nVehContrib="0" flow="0.00" occupancy="0.00" speed="-1.00" harmonicMeanSpeed="-1.00" length="-1.00" nVehEntered="0"/>
    <interval begin="18000.00" end="18300.00" id="1089668757_0_D1.0" nVehContrib="5" flow="60.00" occupancy="10.36" speed="4.75" harmonicMeanSpeed="0.68" length="5.60" nVehEntered="5"/>
    <interval begin="18000.00" end="18300.00" id="1089668757_0_D1.1" nVehContrib="0" flow="0.00" occupancy="0.00" speed="-1.00" harmonicMeanSpeed="-1.00" length="-1.00" nVehEntered="0"/>
    <interval begin="18000.00" end="18300.00" id="1089668757_0_D2.0" nVehContrib="0" flow="0.00" occupancy="0.00" speed="-1.00" harmonicMeanSpeed="-1.00" length="-1.00" nVehEntered="0"/>
    <interval begin="18000.00" end="18300.00" id="1089668757_0_D2.1" nVehContrib="0" flow="0.00" occupancy="0.00" speed="-1.00" harmonicMeanSpeed="-1.00" length="-1.00" nVehEntered="0"/>
    <interval begin="18000.00" end="18300.00" id="1089668757_0_D3.0" nVehContrib="0" flow="0.00" occupancy="0.00" speed="-1.00" harmonicMeanSpeed="-1.00" length="-1.00" nVehEntered="0"/>
    <interval begin="18000.00" end="18300.00" id="1089668757_0_D3.1" nVehContrib="2" flow="24.00" occupancy="0.23" speed="11.64" harmonicMeanSpeed="11.64" length="4.00" nVehEntered="2"/>
    <interval begin="18000.00" end="18300.00" id="1487927529_0_D0.0" nVehContrib="4" flow="48.00" occupancy="0.57" speed="10.04" harmonicMeanSpeed="9.33" length="4.00" nVehEntered="4"/>
    <interval begin="18000.00" end="18300.00" id="1487927529_0_D0.1" nVehContrib="0" flow="0.00" occupancy="0.00" speed="-1.00" harmonicMeanSpeed="-1.00" length="-1.00" nVehEntered="0"/>
    <interval begin="18000.00" end="18300.00" id="1487927529_0_D1.0" nVehContrib="1" flow="12.00" occupancy="0.10" speed="12.79" harmonicMeanSpeed="12.79" length="4.00" nVehEntered="1"/>
    <interval begin="18000.00" end="18300.00" id="1487927529_0_D1.1" nVehContrib="0" flow="0.00" occupancy="0.00" speed="-1.00" harmonicMeanSpeed="-1.00" length="-1.00" nVehEntered="0"/>
    <interval begin="18000.00" end="18300.00" id="2906119381_0_D0.0" nVehContrib="0" flow="0.00" occupancy="0.00" speed="-1.00" harmonicMeanSpeed="-1.00" length="-1.00" nVehEntered="0"/>
    <interval begin="18000.00" end="18300.00" id="2906119381_0_D0.1" nVehContrib="0" flow="0.00" occupancy="0.00" speed="-1.00" harmonicMeanSpeed="-1.00" length="-1.00" nVehEntered="0"/>
    <interval begin="18000.00" end="18300.00" id="2906119381_0_D1.0" nVehContrib="0" flow="0.00" occupancy="0.00" speed="-1.00" harmonicMeanSpeed="-1.00" length="-1.00" nVehEntered="0"/>
    <interval begin="18000.00" end="18300.00" id="2906119381_0_D2.0" nVehContrib="2" flow="24.00" occupancy="0.22" speed="11.88" harmonicMeanSpeed="11.88" length="4.00" nVehEntered="2"/>
    <interval begin="18000.00" end="18300.00" id="2906119381_0_D2.1" nVehContrib="0" flow="0.00" occupancy="0.00" speed="-1.00" harmonicMeanSpeed="-1.00" length="-1.00" nVehEntered="0"/>
    <interval begin="18000.00" end="18300.00" id="30003796_0_D0.0" nVehContrib="0" flow="0.00" occupancy="0.00" speed="-1.00" harmonicMeanSpeed="-1.00" length="-1.00" nVehEntered="0"/>
    <interval begin="18000.00" end="18300.00" id="30003796_0_D1.0" nVehContrib="0" flow="0.00" occupancy="0.00" speed="-1.00" harmonicMeanSpeed="-1.00" length="-1.00" nVehEntered="0"/>
    <interval begin="18000.00" end="18300.00" id="30003796_0_D1.1" nVehContrib="0" flow="0.00" occupancy="0.00" speed="-1.00" harmonicMeanSpeed="-1.00" length="-1.00" nVehEntered="0"/>
    <interval begin="18000.00" end="18300.00" id="30003796_0_D1.2" nVehContrib="1" flow="12.00" occupancy="0.10" speed="12.94" harmonicMeanSpeed="12.94" length="4.00" nVehEntered="1"/>
    <interval begin="18000.00" end="18300.00" id="30003796_0_D1.3" nVehContrib="0" flow="0.00" occupancy="0.00" speed="-1.00" harmonicMeanSpeed="-1.00" length="-1.00" nVehEntered="0"/>
    <interval begin="18000.00" end="18300.00" id="30079057_0_D0.0" nVehContrib="0" flow="0.00" occupancy="0.00" speed="-1.00" harmonicMeanSpeed="-1.00" length="-1.00" nVehEntered="0"/>
    <interval begin="18000.00" end="18300.00" id="30079057_0_D0.1" nVehContrib="0" flow="0.00" occupancy="0.00" speed="-1.00" harmonicMeanSpeed="-1.00" length="-1.00" nVehEntered="0"/>
    <interval begin="18000.00" end="18300.00" id="30079057_0_D1.0" nVehContrib="12" flow="144.00" occupancy="1.37" speed="13.26" harmonicMeanSpeed="11.70" length="4.00" nVehEntered="12"/>
    <interval begin="18000.00" end="18300.00" id="30079057_0_D1.1" nVehContrib="3" flow="36.00" occupancy="0.28" speed="15.86" harmonicMeanSpeed="14.27" length="4.00" nVehEntered="3"/>
    <interval begin="18000.00" end="18300.00" id="30079057_0_D2.0" nVehContrib="0" flow="0.00" occupancy="0.00" speed="-1.00" harmonicMeanSpeed="-1.00" length="-1.00" nVehEntered="0"/>
    <interval begin="18000.00" end="18300.00" id="30079057_0_D2.1" nVehContrib="0" flow="0.00" occupancy="0.00" speed="-1.00" harmonicMeanSpeed="-1.00" length="-1.00" nVehEntered="0"/>
    <interval begin="18000.00" end="18300.00" id="30079057_0_D3.0" nVehContrib="0" flow="0.00" occupancy="0.00" speed="-1.00" harmonicMeanSpeed="-1.00" length="-1.00" nVehEntered="0"/>
    <interval begin="18000.00" end="18300.00" id="30079057_0_D3.1" nVehContrib="0" flow="0.00" occupancy="0.00" speed="-1.00" harmonicMeanSpeed="-1.00" length="-1.00" nVehEntered="0"/>
    <interval begin="18000.00" end="18300.00" id="53119474_0_D0.0" nVehContrib="1" flow="12.00" occupancy="0.10" speed="12.87" harmonicMeanSpeed="12.87" length="4.00" nVehEntered="1"/>
    <interval begin="18000.00" end="18300.00" id="53119474_0_D1.0" nVehContrib="0" flow="0.00" occupancy="0.00" speed="-1.00" harmonicMeanSpeed="-1.00" length="-1.00" nVehEntered="0"/>
    <interval begin="18000.00" end="18300.00" id="53119474_0_D2.0" nVehContrib="2" flow="24.00" occupancy="0.28" speed="9.87" harmonicMeanSpeed="9.57" length="4.00" nVehEntered="2"/>
    <interval begin="18000.00" end="18300.00" id="53119474_0_D3.0" nVehContrib="6" flow="72.00" occupancy="0.85" speed="10.29" harmonicMeanSpeed="9.45" length="4.00" nVehEntered="6"/>
    <interval begin="18000.00" end="18300.00" id="53119474_0_D3.1" nVehContrib="2" flow="24.00" occupancy="0.21" speed="12.68" harmonicMeanSpeed="12.67" length="4.00" nVehEntered="2"/>
    <interval begin="18000.00" end="18300.00" id="53128668_0_D0.0" nVehContrib="0" flow="0.00" occupancy="0.00" speed="-1.00" harmonicMeanSpeed="-1.00" length="-1.00" nVehEntered="0"/>
    <interval begin="18000.00" end="18300.00" id="53128668_0_D0.1" nVehContrib="2" flow="24.00" occupancy="0.21" speed="12.89" harmonicMeanSpeed="12.65" length="4.00" nVehEntered="2"/>
    <interval begin="18000.00" end="18300.00" id="53128668_0_D0.2" nVehContrib="0" flow="0.00" occupancy="0.00" speed="-1.00" harmonicMeanSpeed="-1.00" length="-1.00" nVehEntered="0"/>
    <interval begin="18000.00" end="18300.00" id="53128668_0_D1.0" nVehContrib="0" flow="0.00" occupancy="0.00" speed="-1.00" harmonicMeanSpeed="-1.00" length="-1.00" nVehEntered="0"/>
    <interval begin="18000.00" end="18300.00" id="53128668_0_D1.1" nVehContrib="2" flow="24.00" occupancy="0.23" speed="11.71" harmonicMeanSpeed="11.71" length="4.00" nVehEntered="2"/>
    <interval begin="18000.00" end="18300.00" id="53128668_0_D1.2" nVehContrib="0" flow="0.00" occupancy="0.00" speed="-1.00" harmonicMeanSpeed="-1.00" length="-1.00" nVehEntered="0"/>
    <interval begin="18000.00" end="18300.00" id="53128668_0_D2.0" nVehContrib="1" flow="12.00" occupancy="0.11" speed="11.95" harmonicMeanSpeed="11.95" length="4.00" nVehEntered="1"/>
    <interval begin="18000.00" end="18300.00" id="53128668_0_D2.1" nVehContrib="0" flow="0.00" occupancy="0.00" speed="-1.00" harmonicMeanSpeed="-1.00" length="-1.00" nVehEntered="0"/>
    <interval begin="18000.00" end="18300.00" id="53128668_0_D2.2" nVehContrib="1" flow="12.00" occupancy="0.11" speed="11.65" harmonicMeanSpeed="11.65" length="4.00" nVehEntered="1"/>
    <interval begin="18000.00" end="18300.00" id="53189262_0_D0.0" nVehContrib="2" flow="24.00" occupancy="0.23" speed="11.64" harmonicMeanSpeed="11.64" length="4.00" nVehEntered="2"/>
    <interval begin="18000.00" end="18300.00" id="53189262_0_D0.1" nVehContrib="0" flow="0.00" occupancy="0.00" speed="-1.00" harmonicMeanSpeed="-1.00" length="-1.00" nVehEntered="0"/>
    <interval begin="18000.00" end="18300.00" id="53189262_0_D0.2" nVehContrib="0" flow="0.00" occupancy="0.00" speed="-1.00" harmonicMeanSpeed="-1.00" length="-1.00" nVehEntered="0"/>
    <interval begin="18000.00" end="18300.00" id="53189262_0_D1.0" nVehContrib="0" flow="0.00" occupancy="0.00" speed="-1.00" harmonicMeanSpeed="-1.00" length="-1.00" nVehEntered="0"/>
    <interval begin="18000.00" end="18300.00" id="53189262_0_D1.1" nVehContrib="0" flow="0.00" occupancy="0.00" speed="-1.00" harmonicMeanSpeed="-1.00" length="-1.00" nVehEntered="0"/>
    <interval begin="18000.00" end="18300.00" id="53189262_0_D2.0" nVehContrib="0" flow="0.00" occupancy="0.00" speed="-1.00" harmonicMeanSpeed="-1.00" length="-1.00" nVehEntered="0"/>
    <interval begin="18000.00" end="18300.00" id="53189262_0_D2.1" nVehContrib="0" flow="0.00" occupancy="0.00" speed="-1.00" harmonicMeanSpeed="-1.00" length="-1.00" nVehEntered="0"/>
    <interval begin="18000.00" end="18300.00" id="53189262_0_D2.2" nVehContrib="3" flow="36.00" occupancy="0.33" speed="12.37" harmonicMeanSpeed="12.28" length="4.00" nVehEntered="3"/>
    <interval begin="18000.00" end="18300.00" id="53189262_0_D3.0" nVehContrib="1" flow="12.00" occupancy="0.10" speed="12.92" harmonicMeanSpeed="12.92" length="4.00" nVehEntered="1"/>
    <interval begin="18000.00" end="18300.00" id="53189262_0_D3.1" nVehContrib="0" flow="0.00" occupancy="0.00" speed="-1.00" harmonicMeanSpeed="-1.00" length="-1.00" nVehEntered="0"/>
    <interval begin="18000.00" end="18300.00" id="53189262_0_D3.2" nVehContrib="0" flow="0.00" occupancy="0.00" speed="-1.00" harmonicMeanSpeed="-1.00" length="-1.00" nVehEntered="0"/>
    <interval begin="18000.00" end="18300.00" id="53189264_0_D0.0" nVehContrib="0" flow="0.00" occupancy="0.00" speed="-1.00" harmonicMeanSpeed="-1.00" length="-1.00" nVehEntered="0"/>
    <interval begin="18000.00" end="18300.00" id="53189264_0_D1.0" nVehContrib="0" flow="0.00" occupancy="0.00" speed="-1.00" harmonicMeanSpeed="-1.00" length="-1.00" nVehEntered="0"/>
    <interval begin="18000.00" end="18300.00" id="53189264_0_D2.0" nVehContrib="1" flow="12.00" occupancy="0.11" speed="11.64" harmonicMeanSpeed="11.64" length="4.00" nVehEntered="1"/>
    <interval begin="18000.00" end="18300.00" id="53200538_0_D0.0" nVehContrib="0" flow="0.00" occupancy="0.00" speed="-1.00" harmonicMeanSpeed="-1.00" length="-1.00" nVehEntered="0"/>
    <interval begin="18000.00" end="18300.00" id="53200538_0_D0.1" nVehContrib="0" flow="0.00" occupancy="0.00" speed="-1.00" harmonicMeanSpeed="-1.00" length="-1.00" nVehEntered="0"/>
    <interval begin="18000.00" end="18300.00" id="53200538_0_D1.0" nVehContrib="0" flow="0.00" occupancy="0.00" speed="-1.00" harmonicMeanSpeed="-1.00" length="-1.00" nVehEntered="0"/>
    <interval begin="18000.00" end="18300.00" id="53200538_0_D1.1" nVehContrib="0" flow="0.00" occupancy="0.00" speed="-1.00" harmonicMeanSpeed="-1.00" length="-1.00" nVehEntered="0"/>
    <interval begin="18000.00" end="18300.00" id="53200538_0_D2.0" nVehContrib="2" flow="24.00" occupancy="0.23" speed="11.47" harmonicMeanSpeed="11.47" length="4.00" nVehEntered="2"/>
    <interval begin="18000.00" end="18300.00" id="53200538_0_D2.1" nVehContrib="0" flow="0.00" occupancy="0.00" speed="-1.00" harmonicMeanSpeed="-1.00" length="-1.00" nVehEntered="0"/>
    <interval begin="18000.00" end="18300.00" id="53200538_0_D3.0" nVehContrib="1" flow="12.00" occupancy="0.12" speed="11.50" harmonicMeanSpeed="11.50" length="4.00" nVehEntered="1"/>
    <interval begin="18000.00" end="18300.00" id="53200538_0_D3.1" nVehContrib="0" flow="0.00" occupancy="0.00" speed="-1.00" harmonicMeanSpeed="-1.00" length="-1.00" nVehEntered="0"/>
    <interval begin="18000.00" end="18300.00" id="gneJ108_0_D0.0" nVehContrib="5" flow="60.00" occupancy="0.54" speed="12.85" harmonicMeanSpeed="12.34" length="4.00" nVehEntered="5"/>
    <interval begin="18000.00" end="18300.00" id="gneJ108_0_D0.1" nVehContrib="8" flow="96.00" occupancy="0.95" speed="11.90" harmonicMeanSpeed="11.24" length="4.00" nVehEntered="8"/>
    <interval begin="18000.00" end="18300.00" id="gneJ108_0_D1.0" nVehContrib="0" flow="0.00" occupancy="0.00" speed="-1.00" harmonicMeanSpeed="-1.00" length="-1.00" nVehEntered="0"/>
    <interval begin="18000.00" end="18300.00" id="gneJ108_0_D1.1" nVehContrib="0" flow="0.00" occupancy="0.00" speed="-1.00" harmonicMeanSpeed="-1.00" length="-1.00" nVehEntered="0"/>
    <interval begin="18000.00" end="18300.00" id="gneJ108_0_D2.0" nVehContrib="0" flow="0.00" occupancy="0.00" speed="-1.00" harmonicMeanSpeed="-1.00" length="-1.00" nVehEntered="0"/>
    <interval begin="18000.00" end="18300.00" id="gneJ108_0_D2.1" nVehContrib="1" flow="12.00" occupancy="0.09" speed="14.24" harmonicMeanSpeed="14.24" length="4.00" nVehEntered="1"/>
    <interval begin="18000.00" end="18300.00" id="gneJ108_0_D2.2" nVehContrib="0" flow="0.00" occupancy="0.00" speed="-1.00" harmonicMeanSpeed="-1.00" length="-1.00" nVehEntered="0"/>
    <interval begin="18000.00" end="18300.00" id="gneJ108_0_D3.0" nVehContrib="0" flow="0.00" occupancy="0.00" speed="-1.00" harmonicMeanSpeed="-1.00" length="-1.00" nVehEntered="0"/>
    <interval begin="18000.00" end="18300.00" id="gneJ108_0_D3.1" nVehContrib="1" flow="12.00" occupancy="0.09" speed="14.21" harmonicMeanSpeed="14.21" length="4.00" nVehEntered="1"/>
    <interval begin="18000.00" end="18300.00" id="gneJ355_0_D0.0" nVehContrib="0" flow="0.00" occupancy="0.00" speed="-1.00" harmonicMeanSpeed="-1.00" length="-1.00" nVehEntered="0"/>
    <interval begin="18000.00" end="18300.00" id="gneJ355_0_D0.1" nVehContrib="0" flow="0.00" occupancy="0.00" speed="-1.00" harmonicMeanSpeed="-1.00" length="-1.00" nVehEntered="0"/>
    <interval begin="18000.00" end="18300.00" id="gneJ355_0_D0.2" nVehContrib="0" flow="0.00" occupancy="0.00" speed="-1.00" harmonicMeanSpeed="-1.00" length="-1.00" nVehEntered="0"/>
    <interval begin="18000.00" end="18300.00" id="gneJ355_0_D1.0" nVehContrib="0" flow="0.00" occupancy="0.00" speed="-1.00" harmonicMeanSpeed="-1.00" length="-1.00" nVehEntered="0"/>
    <interval begin="18000.00" end="18300.00" id="gneJ355_0_D1.1" nVehContrib="0" flow="0.00" occupancy="0.00" speed="-1.00" harmonicMeanSpeed="-1.00" length="-1.00" nVehEntered="0"/>
    <interval begin="18000.00" end="18300.00" id="gneJ355_0_D2.0" nVehContrib="6" flow="72.00" occupancy="0.77" speed="10.67" harmonicMeanSpeed="10.32" length="4.00" nVehEntered="6"/>
    <interval begin="18000.00" end="18300.00" id="gneJ355_0_D2.1" nVehContrib="1" flow="12.00" occupancy="0.11" speed="11.60" harmonicMeanSpeed="11.60" length="4.00" nVehEntered="1"/>
    <interval begin="18000.00" end="18300.00" id="gneJ355_2_D0.0" nVehContrib="0" flow="0.00" occupancy="0.00" speed="-1.00" harmonicMeanSpeed="-1.00" length="-1.00" nVehEntered="0"/>
    <interval begin="18000.00" end="18300.00" id="gneJ355_2_D0.1" nVehContrib="0" flow="0.00" occupancy="0.00" speed="-1.00" harmonicMeanSpeed="-1.00" length="-1.00" nVehEntered="0"/>
    <interval begin="18000.00" end="18300.00" id="gneJ355_2_D0.2" nVehContrib="0" flow="0.00" occupancy="0.00" speed="-1.00" harmonicMeanSpeed="-1.00" length="-1.00" nVehEntered="0"/>
    <interval begin="18000.00" end="18300.00" id="gneJ355_2_D1.0" nVehContrib="0" flow="0.00" occupancy="0.00" speed="-1.00" harmonicMeanSpeed="-1.00" length="-1.00" nVehEntered="0"/>
    <interval begin="18000.00" end="18300.00" id="gneJ355_2_D1.1" nVehContrib="0" flow="0.00" occupancy="0.00" speed="-1.00" harmonicMeanSpeed="-1.00" length="-1.00" nVehEntered="0"/>
    <interval begin="18000.00" end="18300.00" id="gneJ355_2_D2.0" nVehContrib="6" flow="72.00" occupancy="0.77" speed="10.67" harmonicMeanSpeed="10.32" length="4.00" nVehEntered="6"/>
    <interval begin="18000.00" end="18300.00" id="gneJ355_2_D2.1" nVehContrib="1" flow="12.00" occupancy="0.11" speed="11.60" harmonicMeanSpeed="11.60" length="4.00" nVehEntered="1"/>
    <interval begin="18000.00" end="18300.00" id="4163983439_2_D0.0" nVehContrib="0" flow="0.00" occupancy="0.00" speed="-1.00" harmonicMeanSpeed="-1.00" length="-1.00" nVehEntered="0"/>
    <interval begin="18000.00" end="18300.00" id="4163983439_2_D1.0" nVehContrib="0" flow="0.00" occupancy="0.00" speed="-1.00" harmonicMeanSpeed="-1.00" length="-1.00" nVehEntered="0"/>
    <interval begin="18000.00" end="18300.00" id="4163983439_2_D2.0" nVehContrib="2" flow="24.00" occupancy="0.21" speed="12.69" harmonicMeanSpeed="12.68" length="4.00" nVehEntered="2"/>
    <interval begin="18000.00" end="18300.00" id="4163983439_2_D2.1" nVehContrib="1" flow="12.00" occupancy="0.10" speed="12.90" harmonicMeanSpeed="12.90" length="4.00" nVehEntered="1"/>
    <interval begin="18000.00" end="18300.00" id="53189617_2_D0.0" nVehContrib="0" flow="0.00" occupancy="0.00" speed="-1.00" harmonicMeanSpeed="-1.00" length="-1.00" nVehEntered="0"/>
    <interval begin="18000.00" end="18300.00" id="53189617_2_D0.1" nVehContrib="0" flow="0.00" occupancy="0.00" speed="-1.00" harmonicMeanSpeed="-1.00" length="-1.00" nVehEntered="0"/>
    <interval begin="18000.00" end="18300.00" id="53189617_2_D1.0" nVehContrib="0" flow="0.00" occupancy="0.00" speed="-1.00" harmonicMeanSpeed="-1.00" length="-1.00" nVehEntered="0"/>
    <interval begin="18000.00" end="18300.00" id="53189617_2_D2.0" nVehContrib="3" flow="36.00" occupancy="0.30" speed="13.50" harmonicMeanSpeed="13.43" length="4.00" nVehEntered="3"/>
    <interval begin="18000.00" end="18300.00" id="53189617_2_D2.1" nVehContrib="0" flow="0.00" occupancy="0.00" speed="-1.00" harmonicMeanSpeed="-1.00" length="-1.00" nVehEntered="0"/>
    <interval begin="18000.00" end="18300.00" id="53146386_2_D0.0" nVehContrib="0" flow="0.00" occupancy="0.00" speed="-1.00" harmonicMeanSpeed="-1.00" length="-1.00" nVehEntered="0"/>
    <interval begin="18000.00" end="18300.00" id="53146386_2_D0.1" nVehContrib="2" flow="24.00" occupancy="0.22" speed="12.40" harmonicMeanSpeed="12.38" length="4.00" nVehEntered="2"/>
    <interval begin="18000.00" end="18300.00" id="53146386_2_D0.2" nVehContrib="0" flow="0.00" occupancy="0.00" speed="-1.00" harmonicMeanSpeed="-1.00" length="-1.00" nVehEntered="0"/>
    <interval begin="18000.00" end="18300.00" id="53146386_2_D1.0" nVehContrib="1" flow="12.00" occupancy="0.11" speed="11.91" harmonicMeanSpeed="11.91" length="4.00" nVehEntered="1"/>
    <interval begin="18000.00" end="18300.00" id="53146386_2_D1.1" nVehContrib="0" flow="0.00" occupancy="0.00" speed="-1.00" harmonicMeanSpeed="-1.00" length="-1.00" nVehEntered="0"/>
    <interval begin="18000.00" end="18300.00" id="53146386_2_D1.2" nVehContrib="0" flow="0.00" occupancy="0.00" speed="-1.00" harmonicMeanSpeed="-1.00" length="-1.00" nVehEntered="0"/>
    <interval begin="18000.00" end="18300.00" id="53146386_2_D2.0" nVehContrib="3" flow="36.00" occupancy="0.32" speed="12.68" harmonicMeanSpeed="12.67" length="4.00" nVehEntered="3"/>
    <interval begin="18000.00" end="18300.00" id="53146386_2_D2.1" nVehContrib="0" flow="0.00" occupancy="0.00" speed="-1.00" harmonicMeanSpeed="-1.00" length="-1.00" nVehEntered="0"/>
    <interval begin="18000.00" end="18300.00" id="53146386_2_D2.2" nVehContrib="0" flow="0.00" occupancy="0.00" speed="-1.00" harmonicMeanSpeed="-1.00" length="-1.00" nVehEntered="0"/>
    <interval begin="18000.00" end="18300.00" id="53155734_2_D0.0" nVehContrib="1" flow="12.00" occupancy="0.34" speed="3.91" harmonicMeanSpeed="3.91" length="4.00" nVehEntered="1"/>
    <interval begin="18000.00" end="18300.00" id="53155734_2_D1.0" nVehContrib="0" flow="0.00" occupancy="0.00" speed="-1.00" harmonicMeanSpeed="-1.00" length="-1.00" nVehEntered="0"/>
    <interval begin="18000.00" end="18300.00" id="53155734_2_D1.1" nVehContrib="0" flow="0.00" occupancy="0.00" speed="-1.00" harmonicMeanSpeed="-1.00" length="-1.00" nVehEntered="0"/>
    <interval begin="18000.00" end="18300.00" id="53155734_2_D2.0" nVehContrib="3" flow="36.00" occupancy="0.30" speed="13.39" harmonicMeanSpeed="13.35" length="4.00" nVehEntered="3"/>
    <interval begin="18000.00" end="18300.00" id="53155734_2_D2.1" nVehContrib="0" flow="0.00" occupancy="0.00" speed="-1.00" harmonicMeanSpeed="-1.00" length="-1.00" nVehEntered="0"/>
    <interval begin="18000.00" end="18300.00" id="53091442_2_D0.0" nVehContrib="0" flow="0.00" occupancy="0.00" speed="-1.00" harmonicMeanSpeed="-1.00" length="-1.00" nVehEntered="0"/>
    <interval begin="18000.00" end="18300.00" id="53091442_2_D1.0" nVehContrib="0" flow="0.00" occupancy="0.00" speed="-1.00" harmonicMeanSpeed="-1.00" length="-1.00" nVehEntered="0"/>
    <interval begin="18000.00" end="18300.00" id="53091442_2_D1.1" nVehContrib="0" flow="0.00" occupancy="0.00" speed="-1.00" harmonicMeanSpeed="-1.00" length="-1.00" nVehEntered="0"/>
    <interval begin="18000.00" end="18300.00" id="53091442_2_D2.0" nVehContrib="3" flow="36.00" occupancy="0.31" speed="12.86" harmonicMeanSpeed="12.86" length="4.00" nVehEntered="3"/>
    <interval begin="18000.00" end="18300.00" id="53091442_2_D2.1" nVehContrib="0" flow="0.00" occupancy="0.00" speed="-1.00" harmonicMeanSpeed="-1.00" length="-1.00" nVehEntered="0"/>
    <interval begin="18000.00" end="18300.00" id="53247506_2_D0.0" nVehContrib="0" flow="0.00" occupancy="0.00" speed="-1.00" harmonicMeanSpeed="-1.00" length="-1.00" nVehEntered="0"/>
    <interval begin="18000.00" end="18300.00" id="53247506_2_D1.0" nVehContrib="0" flow="0.00" occupancy="0.00" speed="-1.00" harmonicMeanSpeed="-1.00" length="-1.00" nVehEntered="0"/>
    <interval begin="18000.00" end="18300.00" id="53247506_2_D1.1" nVehContrib="0" flow="0.00" occupancy="0.00" speed="-1.00" harmonicMeanSpeed="-1.00" length="-1.00" nVehEntered="0"/>
    <interval begin="18000.00" end="18300.00" id="53247506_2_D2.0" nVehContrib="0" flow="0.00" occupancy="0.00" speed="-1.00" harmonicMeanSpeed="-1.00" length="-1.00" nVehEntered="0"/>
    <interval begin="18000.00" end="18300.00" id="53247506_2_D2.1" nVehContrib="0" flow="0.00" occupancy="0.00" speed="-1.00" harmonicMeanSpeed="-1.00" length="-1.00" nVehEntered="0"/>
    <interval begin="18000.00" end="18300.00" id="53247506_2_D3.0" nVehContrib="2" flow="24.00" occupancy="0.18" speed="14.52" harmonicMeanSpeed="14.52" length="4.00" nVehEntered="2"/>
    <interval begin="18000.00" end="18300.00" id="53247506_2_D3.1" nVehContrib="0" flow="0.00" occupancy="0.00" speed="-1.00" harmonicMeanSpeed="-1.00" length="-1.00" nVehEntered="0"/>
    <interval begin="18000.00" end="18300.00" id="gneJ234_2_D0.0" nVehContrib="0" flow="0.00" occupancy="0.00" speed="-1.00" harmonicMeanSpeed="-1.00" length="-1.00" nVehEntered="0"/>
    <interval begin="18000.00" end="18300.00" id="gneJ234_2_D0.1" nVehContrib="0" flow="0.00" occupancy="0.00" speed="-1.00" harmonicMeanSpeed="-1.00" length="-1.00" nVehEntered="0"/>
    <interval begin="18000.00" end="18300.00" id="gneJ234_2_D1.0" nVehContrib="2" flow="24.00" occupancy="0.19" speed="14.12" harmonicMeanSpeed="14.05" length="4.00" nVehEntered="2"/>
    <interval begin="18000.00" end="18300.00" id="gneJ234_2_D1.1" nVehContrib="0" flow="0.00" occupancy="0.00" speed="-1.00" harmonicMeanSpeed="-1.00" length="-1.00" nVehEntered="0"/>
    <interval begin="18000.00" end="18300.00" id="2476726095_2_D0.0" nVehContrib="0" flow="0.00" occupancy="0.00" speed="-1.00" harmonicMeanSpeed="-1.00" length="-1.00" nVehEntered="0"/>
    <interval begin="18000.00" end="18300.00" id="2476726095_2_D0.1" nVehContrib="0" flow="0.00" occupancy="0.00" speed="-1.00" harmonicMeanSpeed="-1.00" length="-1.00" nVehEntered="0"/>
    <interval begin="18000.00" end="18300.00" id="2476726095_2_D1.0" nVehContrib="1" flow="12.00" occupancy="0.10" speed="13.16" harmonicMeanSpeed="13.16" length="4.00" nVehEntered="1"/>
    <interval begin="18000.00" end="18300.00" id="2476726095_2_D1.1" nVehContrib="0" flow="0.00" occupancy="0.00" speed="-1.00" harmonicMeanSpeed="-1.00" length="-1.00" nVehEntered="0"/>
    <interval begin="18000.00" end="18300.00" id="53036746_2_D0.0" nVehContrib="0" flow="0.00" occupancy="0.00" speed="-1.00" harmonicMeanSpeed="-1.00" length="-1.00" nVehEntered="0"/>
    <interval begin="18000.00" end="18300.00" id="53036746_2_D0.1" nVehContrib="0" flow="0.00" occupancy="0.00" speed="-1.00" harmonicMeanSpeed="-1.00" length="-1.00" nVehEntered="0"/>
    <interval begin="18000.00" end="18300.00" id="53036746_2_D1.0" nVehContrib="1" flow="12.00" occupancy="0.10" speed="12.87" harmonicMeanSpeed="12.87" length="4.00" nVehEntered="1"/>
    <interval begin="18000.00" end="18300.00" id="53036746_2_D1.1" nVehContrib="0" flow="0.00" occupancy="0.00" speed="-1.00" harmonicMeanSpeed="-1.00" length="-1.00" nVehEntered="0"/>
    <interval begin="18000.00" end="18300.00" id="6005458284_2_D0.0" nVehContrib="1" flow="12.00" occupancy="0.10" speed="12.90" harmonicMeanSpeed="12.90" length="4.00" nVehEntered="1"/>
    <interval begin="18000.00" end="18300.00" id="6005458284_2_D1.0" nVehContrib="0" flow="0.00" occupancy="0.00" speed="-1.00" harmonicMeanSpeed="-1.00" length="-1.00" nVehEntered="0"/>
    <interval begin="18000.00" end="18300.00" id="53155727_2_D0.0" nVehContrib="0" flow="0.00" occupancy="0.00" speed="-1.00" harmonicMeanSpeed="-1.00" length="-1.00" nVehEntered="0"/>
    <interval begin="18000.00" end="18300.00" id="53155727_2_D1.0" nVehContrib="1" flow="12.00" occupancy="0.06" speed="22.77" harmonicMeanSpeed="22.77" length="4.00" nVehEntered="1"/>
    <interval begin="18000.00" end="18300.00" id="53155727_2_D1.1" nVehContrib="0" flow="0.00" occupancy="0.00" speed="-1.00" harmonicMeanSpeed="-1.00" length="-1.00" nVehEntered="0"/>
    <interval begin="18000.00" end="18300.00" id="53155727_2_D2.0" nVehContrib="0" flow="0.00" occupancy="0.00" speed="-1.00" harmonicMeanSpeed="-1.00" length="-1.00" nVehEntered="0"/>
    <interval begin="18000.00" end="18300.00" id="53155727_2_D3.0" nVehContrib="0" flow="0.00" occupancy="0.00" speed="-1.00" harmonicMeanSpeed="-1.00" length="-1.00" nVehEntered="0"/>
    <interval begin="18000.00" end="18300.00" id="53155727_2_D3.1" nVehContrib="0" flow="0.00" occupancy="0.00" speed="-1.00" harmonicMeanSpeed="-1.00" length="-1.00" nVehEntered="0"/>
    <interval begin="18000.00" end="18300.00" id="53155726_2_D0.0" nVehContrib="0" flow="0.00" occupancy="0.00" speed="-1.00" harmonicMeanSpeed="-1.00" length="-1.00" nVehEntered="0"/>
    <interval begin="18000.00" end="18300.00" id="53155726_2_D1.0" nVehContrib="1" flow="12.00" occupancy="0.10" speed="13.72" harmonicMeanSpeed="13.72" length="4.00" nVehEntered="1"/>
    <interval begin="18000.00" end="18300.00" id="53155726_2_D1.1" nVehContrib="0" flow="0.00" occupancy="0.00" speed="-1.00" harmonicMeanSpeed="-1.00" length="-1.00" nVehEntered="0"/>
    <interval begin="18000.00" end="18300.00" id="53155726_2_D2.0" nVehContrib="0" flow="0.00" occupancy="0.00" speed="-1.00" harmonicMeanSpeed="-1.00" length="-1.00" nVehEntered="0"/>
    <interval begin="18000.00" end="18300.00" id="53155726_2_D3.0" nVehContrib="0" flow="0.00" occupancy="0.00" speed="-1.00" harmonicMeanSpeed="-1.00" length="-1.00" nVehEntered="0"/>
    <interval begin="18000.00" end="18300.00" id="53155726_2_D3.1" nVehContrib="0" flow="0.00" occupancy="0.00" speed="-1.00" harmonicMeanSpeed="-1.00" length="-1.00" nVehEntered="0"/>